# vtk DataFile Version 3.0
vtk output
ASCII
DATASET POLYDATA
POINTS 9 float
-3.0000000 -3.0000000 0.0000267 
-3.0000000 0.0000000 -0.0146025 
-3.0000000 3.0000000 0.0000129
0.0000000 -3.0000000 -0.0979816 
0.0000000 0.0000000 0.3924047 
0.0000000 3.0000000 0.1199484
3.0000000 -3.0000000 -0.0000023
3.0000000 0.0000000 0.0132500
3.0000000 3.0000000 0.0000164

POLYGONS 8 32
3 0 3 1
3 3 4 1
3 1 4 2
3 4 7 5
3 2 4 5
3 3 6 4
3 5 7 8
3 4 6 7

CELL_DATA 8
SCALARS conectivity float
LOOKUP_TABLE default
1 2 1 0 2 0 0 3 

POINT_DATA 9
SCALARS point_data float
LOOKUP_TABLE default
1 3 2 4 2 5 4 3 3

